% Model:              model.mph
% Version:            COMSOL 6.4.0.293
% Date:               Mar 27 2026, 14:58
% Dimension:          3
% Nodes:              2281
% Expressions:        6
% Description:        x-coordinate, y-coordinate, z-coordinate, von Mises stress, Displacement magnitude, Equivalent deviatoric strain
% Length unit:        µm
% X                       Y                        Z                        x (µm)                   y (µm)                   z (µm)                   solid.mises (N/m^2)      solid.disp (µm)          solid.edeve (1)
1.3664702122098003        2.994070126330374        0.05000000000000185      1.3664702122098          2.9940701263303735       0.05000000000000183      1488.7337999578463       3.241275396222916E-9     1.1302368113559193E-9
1.3725346577755384        3.06070041508791         0.049999999999999996     1.3725346577755386       3.06070041508791         0.05                     610.9734803547927        3.1546213660662182E-9    4.6384700762409835E-10
1.3803883755158897        3.047242889871106        5.152985330410444E-18    1.3803883755158899       3.0472428898711064       5.152985330410445E-18    1002.3933588051511       3.1743493815780712E-9    7.61010379164087E-10
1.3803883755158897        3.047242889871106        0.09999999999999999      1.3803883755158897       3.047242889871106        0.09999999999999999      1076.3895984568705       3.1766524058033475E-9    8.171878327549513E-10
1.2408318317770661        3.100232312790125        0                        1.2408318317770661       3.100232312790126        0                        457.84436760972187       3.0697131995104447E-9    3.4759240245585103E-10
1.349066664678467         3.1547028115404707       0                        1.3490666646784673       3.1547028115404707       0                        222.402679213859         3.0748047473657937E-9    1.6884663665130934E-10
1.2575044569746983        3.1009035157716798       0.09999999999999999      1.2575044569746985       3.1009035157716798       0.09999999999999999      428.070380041073         3.077140962285818E-9     3.2498818888060707E-10
1.349066664678467         3.1547028115404707       0.09999999999999999      1.349066664678467        3.1547028115404707       0.09999999999999999      275.13896364756846       3.078346787360676E-9     2.0888367346923358E-10
1.3616600564580312        2.9320690521378108       0                        1.3616600564580315       2.932069052137811        0                        2025.2535231144623       3.301813908481442E-9     1.5375590211070803E-9
1.249860009944366         2.99607452836364         0                        1.2498600099443657       2.99607452836364         0                        1376.041349981735        3.1249897673715132E-9    1.0446814519434522E-9
1.3752759114449196        2.921936456862259        0.09999999999999999      1.3752759114449196       2.9219364568622583       0.1                      2027.3602195727403       3.3309058776811124E-9    1.5391584110635434E-9
1.2490384985729068        2.9944823965132517       0.09999999999999999      1.249038498572907        2.9944823965132503       0.10000000000000003      1399.9649584380359       3.128876913866705E-9     1.062844096560335E-9
0.9741766230656344        3.049634608163004        0.04999999999999979      0.9741766230656344       3.049634608163004        0.049999999999999795     922.6509730032667        2.989376937069251E-9     7.004704895873325E-10
0.9177449538410443        3.047242889871107        0.1                      0.9177449538410443       3.047242889871107        0.09999999999999999      1127.9130375535306       2.998929916544726E-9     8.563040854499231E-10
1.0183779450595403        3.0285158162228956       0.09999999999999999      1.0183779450595405       3.0285158162228956       0.09999999999999999      1162.354098822232        2.9776138268170044E-9    8.824515103751508E-10
0.9490666646784671        3.154702811540471        0.09999999999999999      0.9490666646784671       3.154702811540471        0.09999999999999999      258.16935950707483       3.0887850753073E-9       1.9600046273390736E-10
0.9255986715813945        3.06070041508791         0.049999999999999996     0.9255986715813946       3.0607004150879105       0.049999999999999996     687.3510262331057        3.0270406572906985E-9    5.218323330833626E-10
0.9490666646784671        3.154702811540471        0                        0.9490666646784671       3.154702811540471        0                        331.7313862738735        3.0857813126623423E-9    2.5184826478693486E-10
0.9177449538410443        3.047242889871107        5.152985330410409E-18    0.9177449538410443       3.047242889871107        5.152985330410409E-18    980.7413700370222        2.9948464021986737E-9    7.445723331242268E-10
1.018315484303058         3.0278866974321192       0                        1.0183154843030577       3.0278866974321184       0                        1206.8699790021142       2.9737332389629113E-9    9.162476708913116E-10
0.9281457861410798        2.9183045003900596       0                        0.9281457861410799       2.918304500390059        0                        2196.475100467985        2.8444375404621474E-9    1.6675493052188885E-9
0.9305207586602648        2.916118209874821        0.09999999999999999      0.9305207586602648       2.916118209874822        0.10000000000000002      2125.6419335435885       2.849879453859974E-9     1.6137732354304974E-9
0.833590317026607         2.9734412541331414       0.1                      0.8335903170266069       2.973441254133142        0.09999999999999999      3672.271244080168        2.7610796326287138E-9    2.7879639338212513E-9
0.833590317026607         2.9734412541331414       7.070886976453856E-18    0.8335903170266069       2.973441254133142        7.070886976453856E-18    3566.9598501254986       2.7552104379755523E-9    2.7080122231083355E-9
0.7229614262344568        2.956413839265709        0.09999999999999999      0.7229614262344568       2.956413839265709        0.09999999999999999      4643.350342128928        2.3233840086771643E-9    3.525200734237864E-9
0.7076040913705183        2.959047872899294        0.049999999999999996     0.7076040913705183       2.959047872899294        0.049999999999999996     4625.089047425318        2.237947881082808E-9     3.5113368806076028E-9
0.7972643627157886        2.8589889656615237       0.09999999999999999      0.7972643627157884       2.8589889656615237       0.1                      1924.2030818258552       2.6798940402802647E-9    1.4608421973529796E-9
0.7229614262344568        2.956413839265709        5.152985330410417E-18    0.7229614262344568       2.956413839265709        5.1529853304104164E-18   4825.253597168079        2.333617838587035E-9     3.6633004770908372E-9
0.8534469975243967        2.8883265704812384       0.044444444444445806     0.8534469975243967       2.8883265704812393       0.0444444444444458       2134.5412104956213       2.753620952380662E-9     1.6205295073751016E-9
0.798945521071797         2.85683548299413         0                        0.798945521071797        2.856835482994129        0                        1952.7173462957078       2.6860103189147983E-9    1.4824900375198895E-9
0.6205091427411592        3.0014939229166755       0.09999999999999999      0.6205091427411592       3.001493922916676        0.09999999999999999      2616.858264549431        1.7432497968106942E-9    1.9867014108085956E-9
0.6385311182972183        2.8513960971625756       0.09999999999999999      0.6385311182972183       2.851396097162575        0.09999999999999999      2075.294649150134        2.2667564597168553E-9    1.5755499115730709E-9
0.6384062668634738        2.8513830175633084       0                        0.6384062668634736       2.851383017563308        0                        2133.242755025525        2.2663824718305894E-9    1.6195437286077686E-9
0.6205091427411592        3.0014939229166755       0                        0.6205091427411592       3.001493922916676        0                        2277.3522861668525       1.7390641216488259E-9    1.728950727339025E-9
0.3156821886927782        2.791237916685735        0.049541285196515475     0.3156821886927782       2.7912379166857355       0.04954128519651547      2408.6455128290945       1.328144349808627E-9     1.8286276728477244E-9
0.3285575219373078        2.7243075045218843       0                        0.3285575219373078       2.7243075045218847       0                        2053.3551386117365       1.702823793942074E-9     1.5588935809152133E-9
0.3285575219373078        2.7243075045218843       0.09999999999999999      0.3285575219373078       2.7243075045218847       0.09999999999999999      2223.2843455525567       1.7033635897016869E-9    1.687902705994838E-9
0.24146257330794862       2.7667535545392656       0.04999999999999999      0.24146257330794857      2.766753554539266        0.04999999999999999      4761.827629390748        1.1639473208696488E-9    3.6151479036893058E-9
0.22610523844401015       2.7693875881728505       0.09999999999999999      0.22610523844401012      2.7693875881728505       0.09999999999999999      4394.980963504552        1.0787805232788E-9       3.3366403518895844E-9
0.3199892973027942        2.876984738132751        0.09999999999999999      0.31998929730279424      2.87698473813275         0.10000000000000003      2140.3134989815335       1.0458670660112737E-9    1.6249117904486295E-9
0.221161179657469         2.8250437650991813       0.045412844108773144     0.22116117965746895      2.8250437650991813       0.04541284410877314      2755.4899130908775       9.033280091788064E-10    2.0919496374592784E-9
0.22610523844401015       2.7693875881728505       5.152985330410414E-18    0.22610523844401012      2.7693875881728505       5.152985330410414E-18    4502.720732139301        1.0771349628119355E-9    3.4184356685280643E-9
0.3196600402298976        2.8773512718173397       0                        0.3196600402298975       2.8773512718173397       0                        2118.248666025546        1.0452900646622402E-9    1.608160315843846E-9
0.1547458146863984        2.8712558183481174       0                        0.1547458146863984       2.8712558183481174       0                        1843.977215706772        6.648119223548264E-10    1.3999352527311378E-9
0.1541532826441833        2.8718148585454033       0.09999999999999999      0.15415328264418326      2.871814858545404        0.10000000000000003      1891.5238359066498       6.639158586578336E-10    1.4360323309374503E-9
0.11547634765186014       2.752360173305419        0.1                      0.11547634765186011      2.752360173305419        0.09999999999999999      3949.3292242419093       5.813513268566897E-10    2.998304511879987E-9
0.11547634765186014       2.752360173305419        7.070886976453852E-18    0.11547634765186011      2.752360173305419        7.07088697645385E-18     3795.98000072265         5.939128735123574E-10    2.881882800074143E-9
0.0020049485412304228     2.7242119430254936       0.04489795918447668      0.002004948541230422     2.724211943025494        0.04489795918447669      1502.8237159130676       3.3354326474544394E-10   1.1409337819506308E-9
0.008263986383026075      2.81288434057788         0                        0.008263986383026074     2.8128843405778805       0                        1821.4307258558583       4.3420306433642466E-10   1.3828181074113458E-9
0.008261368876350508      2.8128823359745745       0.09999999999999999      0.00826136887635051      2.812882335974575        0.1                      1873.1294597025471       4.3290948208404445E-10   1.4220674427160672E-9
0.031321710837422995      2.678558537567453        5.152985330410415E-18    0.031321710837422995     2.6785585375674534       5.152985330410415E-18    1463.844489609235        2.6545561536508324E-10   1.1113410122774964E-9
0.031321710837422995      2.678558537567453        0.1                      0.031321710837422995     2.6785585375674534       0.09999999999999999      1471.4784405736223       2.646756512426579E-10    1.1171366571377666E-9
0.023467993097072294      2.66510101235065         0.049999999999999996     0.02346799309707229      2.66510101235065         0.049999999999999996     1103.6496474459516       2.2666031126719508E-10   8.378834808605392E-10
-0.022468618683338232     2.6471450465204103       0.043877551029248854     -0.022468618683338236    2.6471450465204103       0.04387755102924885      786.1465409792199        1.9017895530450367E-10   5.968372315856888E-10
-0.07782778447989279      2.685383133311971        0                        -0.07782778447989279     2.6853831333119715       0                        1149.3609554196544       2.1691968620414306E-10   8.725872022166107E-10
-0.0778279421705469       2.6853813070721717       0.09999999999999999      -0.07782794217054692     2.685381307072171        0.10000000000000002      1126.922961975618        2.167477571948297E-10    8.555524266481848E-10
0                         2.5710986158980886       0                        0                        2.5710986158980886       0                        268.9927650597895        9.478671427132913E-11    2.0421752033029499E-10
0                         2.5710986158980886       0.09999999999999999      0                        2.571098615898088        0.09999999999999999      250.26930289608714       9.558315871144661E-11    1.9000279223445354E-10
1.3725346577755388        -0.060700415087908924    0.049999999999999996     1.3725346577755388       -0.060700415087908924    0.049999999999999996     657.9522123540931        3.1558909883119655E-9    4.995129488809817E-10
1.3803883755158899        -0.04724288987110564     0.1                      1.38038837551589         -0.04724288987110564     0.09999999999999999      1090.8862756868414       3.1782684057318326E-9    8.281936138073601E-10
1.3653168020168613        0.03904816473407314      0.05000000000000011      1.365316802016861        0.03904816473407314      0.050000000000000135     1881.2515175172005       3.2807664012582825E-9    1.428233655054594E-9
1.3660063497517316        0.07499781802066688      0                        1.3660063497517319       0.07499781802066686      0                        2103.385998949738        3.3185876143599004E-9    1.596876677731726E-9
1.3803883755158899        -0.04724288987110564     5.152985330410418E-18    1.3803883755158899       -0.04724288987110564     5.152985330410418E-18    1078.5406429647196       3.1783392368949207E-9    8.188208914560462E-10
1.3581783194029085        0.08070956535239886      0.09999999999999999      1.3581783194029087       0.08070956535239884      0.1                      2028.0049599308657       3.3068629770421886E-9    1.5396478936604591E-9
1.2818009699990212        -0.028796876113286195    0                        1.2818009699990214       -0.02879687611328619     0                        1207.4840847904325       3.132236056614207E-9     9.167138959263337E-10
1.349066664678467         -0.15470281154047025     0                        1.3490666646784673       -0.15470281154047025     0                        333.81128695780495       3.0761811727395048E-9    2.53427311569507E-10
1.2648037980946611        -0.03495564239541135     0.09999999999999999      1.2648037980946611       -0.034955642395411365    0.10000000000000003      1064.7259991217304       3.115865943263756E-9     8.083329056203241E-10
1.349066664678467         -0.15470281154047025     0.09999999999999999      1.3490666646784673       -0.15470281154047025     0.09999999999999999      212.8908031124924        3.077663538461778E-9     1.6162528350199504E-10
0.9490666646784671        -0.15470281154047036     0                        0.9490666646784671       -0.15470281154047036     0                        244.38862140752298       3.0871007761214556E-9    1.8553821791336134E-10
0.9255986715813954        -0.06070041508790904     0.04999999999999999      0.9255986715813956       -0.06070041508790903     0.04999999999999998      695.3434799104275        3.022524924122085E-9     5.279001508217287E-10
0.9490666646784671        -0.15470281154047036     0.09999999999999999      0.9490666646784671       -0.15470281154047036     0.09999999999999999      272.36599326053926       3.089211996229736E-9     2.067784527720967E-10
1.0523693830949337        -0.1010809729869871      0                        1.0523693830949339       -0.10108097298698705     0                        425.26789570728243       3.0346508551681777E-9    3.2286056139113444E-10
1.0402562712219932        -0.05817108227213174     0.09999999999999999      1.0402562712219934       -0.05817108227213174     0.1                      830.5480429034162        3.0061605523494974E-9    6.305465568899405E-10
0.9177449538410443        -0.04724288987110575     0.09999999999999999      0.9177449538410443       -0.04724288987110575     0.09999999999999999      951.8551504232523        2.9982671447319656E-9    7.22642107082931E-10
0.9555080325976909        0.0740832978433425       0.09999999999999999      0.9555080325976912       0.07408329784334253      0.10000000000000002      2065.903977490022        2.876055587300127E-9     1.5684205760303997E-9
0.9177449538410443        -0.04724288987110575     5.152985330410423E-18    0.9177449538410443       -0.04724288987110575     5.1529853304104226E-18   1153.6571203541275       3.0023988717070444E-9    8.758488220956905E-10
1.050596932004849         0.002124924171892425     0                        1.050596932004849        0.0021249241718924246    0                        1376.0751189271969       2.983416531745642E-9     1.0447070891025215E-9
0.9201149161583934        0.07620881653556243      0                        0.9201149161583932       0.07620881653556243      0                        2116.8442529143504       2.84040212560375E-9      1.6070940947392613E-9
0.833590317026607         0.026558745866859378     0.1                      0.8335903170266069       0.02655874586685938      0.09999999999999999      3443.7957040794595       2.7682836556696793E-9    2.6145068216024455E-9
0.833590317026607         0.026558745866859378     7.070886976453861E-18    0.8335903170266069       0.02655874586685938      7.07088697645386E-18     3840.720876357307        2.759676438838813E-9     2.915849775644938E-9
0.8066636139773953        0.12743324435619313      0                        0.8066636139773954       0.12743324435619316      0                        2062.9768088723963       2.68746086698785E-9      1.5661982890609098E-9
0.8193388380960003        0.12992252933659587      0.09999999999999999      0.8193388380959999       0.1299225293365959       0.09999999999999999      2142.075952645463        2.712655030898228E-9     1.6262498335624069E-9
0.7229614262344569        0.043586160734291474     0.1                      0.7229614262344569       0.043586160734291474     0.09999999999999999      4927.153140273381        2.332557973525853E-9     3.74066193330364E-9
0.7076040913705183        0.04095212710070708      0.04999999999999999      0.7076040913705183       0.04095212710070708      0.04999999999999999      4755.370325676628        2.2391398068591377E-9    3.610245561605039E-9
0.6656565441261613        0.13735054571968044      0.09999999999999999      0.6656565441261613       0.13735054571968044      0.10000000000000002      2091.9884658754977       2.336399246501828E-9     1.5882237463349127E-9
0.7229614262344569        0.043586160734291474     5.152985330410422E-18    0.7229614262344569       0.043586160734291474     5.152985330410422E-18    4816.810219599515        2.3246205437933714E-9    3.65689032092965E-9
0.664560397723057         0.13541607283868246      0                        0.664560397723057        0.13541607283868243      0                        2207.328740473112        2.3289438340064426E-9    1.6757893166106807E-9
0.6205091427411594        -0.001493922916674828    0.09999999999999999      0.6205091427411594       -0.001493922916674828    0.09999999999999999      2508.9065889421395       1.742341238436062E-9     1.904745215804247E-9
0.6205091427411594        -0.001493922916674828    0                        0.6205091427411594       -0.001493922916674828    0                        2473.5434412291347       1.7378785389260533E-9    1.8778977489758698E-9
0.2414625733079488        0.23324644546073414      0.049999999999999996     0.24146257330794876      0.23324644546073417      0.049999999999999996     4586.872581361091        1.1731401819799243E-9    3.4823231934414047E-9
0.3285575219373078        0.27569249547811603      0.09999999999999999      0.3285575219373078       0.27569249547811603      0.09999999999999999      2153.0162845698687       1.7077338595192816E-9    1.6345556608834267E-9
0.30275640105166357       0.12315220705869051      0.09999999999999999      0.3027564010516635       0.12315220705869055      0.10000000000000002      2072.6181964227408       9.956340966249812E-10    1.573517966441954E-9
0.3285575219373078        0.27569249547811603      0                        0.32855752193730775      0.2756924954781161       0                        2230.979628778844        1.7020642032767398E-9    1.6937449139009163E-9
0.22610523844401043       0.23061241182714962      0.1                      0.2261052384440104       0.23061241182714962      0.09999999999999999      4744.417305831115        1.0811988783887164E-9    3.6019301016985995E-9
0.17770527785346749       0.18685664584271575      0.05995610070854099      0.1777052778534675       0.18685664584271575      0.05995610070854097      3060.5130240615044       7.983811350196261E-10    2.3235211570573807E-9
0.22610523844401043       0.23061241182714962      5.152985330410424E-18    0.2261052384440104       0.23061241182714962      5.152985330410424E-18    4600.073946238643        1.0802077765065716E-9    3.4923455819605417E-9
0.2852366745666525        0.13914507159427497      0                        0.2852366745666525       0.139145071594275        0                        2080.168356019586        9.87926472430247E-10     1.579249997452608E-9
0.14178766753926952       0.14225854146548597      0.09999999999999999      0.14178766753926952      0.14225854146548597      0.09999999999999999      2005.1940539396367       6.595775988762047E-10    1.5223300053634418E-9
0.11547634765186025       0.2476398266945817       0.1                      0.11547634765186027      0.24763982669458165      0.09999999999999999      3795.6027500485948       5.90864956465339E-10     2.8815963938684556E-9
0.11547634765186025       0.2476398266945817       7.070886976453867E-18    0.11547634765186027      0.24763982669458165      7.070886976453869E-18    3824.497726122921        5.813919966800782E-10    2.9035332677564373E-9
0.1372519196013026        0.1382747933249395       0                        0.13725191960130262      0.1382747933249395       0                        1991.8976558892464       6.457439162301477E-10    1.5122354682907845E-9
0.03132171083742296       0.32144146243254673      5.152985330410429E-18    0.03132171083742296      0.32144146243254673      5.152985330410428E-18    1571.3113702300095       2.6399156611319266E-10   1.1929291541485451E-9
-0.007887316936849343     0.26684604766445         0.04999999999999982      -0.007887316936849343    0.26684604766445         0.04999999999999982      1440.3850584793622       3.3607775055892123E-10   1.0935307680033342E-9
0.03132171083742296       0.32144146243254673      0.09999999999999999      0.03132171083742296      0.32144146243254673      0.09999999999999999      1546.2767992253725       2.650213193244441E-10    1.173923074145025E-9
0.02346799309707193       0.33489898764935017      0.04999999999999999      0.02346799309707193      0.33489898764935017      0.04999999999999999      1120.914147680515        2.2774823047931176E-10   8.509905747515477E-10
-0.07764453275405525      0.31952862198350357      0.09999999999999999      -0.07764453275405528     0.31952862198350357      0.10000000000000002      1100.806270948396        2.110911226392918E-10    8.357248083119791E-10
0                         0.42890138410191153      0.09999999999999999      0                        0.4289013841019115       0.09999999999999999      297.835048970335         9.543365637333518E-11    2.2611439067757566E-10
-0.07732626255668962      0.3214478413505577       0                        -0.07732626255668959     0.3214478413505578       0                        1104.2845385638973       2.1062998003918775E-10   8.383654859797378E-10
0                         0.42890138410191153      0                        0                        0.42890138410191153      0                        225.6982246870777        9.614380910773629E-11    1.7134859288251713E-10
0.004249142636765172      0.19546878033992837      0.09999999999999999      0.004249142636765172     0.19546878033992834      0.10000000000000002      1826.1565990336035       4.243288238569675E-10    1.3864059589341887E-9
-0.0022099038709039007    0.1948170694966934       0                        -0.0022099038709039007   0.19481706949669333      0                        1803.7249602750512       4.1402035400650776E-10   1.3693760078007682E-9
1.349066664678467         4.225801427438559        0.09999999999999999      1.349066664678467        4.225801427438559        0.09999999999999999      0.00659072456512775      3.2180502762684866E-9    5.008682463641468E-15
1.349066664678467         4.225801427438559        0                        1.3490666646784673       4.225801427438559        0                        0.008861037742892304     3.2150014197126555E-9    6.731438006060865E-15
1.2246403892446056        4.089110780802695        0.09999999999999999      1.2246403892446056       4.089110780802697        0.1                      0.023401259631399995     3.2082741586967303E-9    1.77675896649704E-14
1.1490666646784669        4.225801427438559        0.09999999999999999      1.1490666646784666       4.225801427438559        0.09999999999999999      0.004361427098731302     3.2384845634512215E-9    3.32317164542583E-15
1.349066664678467         4.030240508127456        0.09999999999999999      1.349066664678467        4.030240508127456        0.09999999999999999      0.039818579837109555     3.1858237660657463E-9    3.023210176819024E-14
1.168331246205961         4.073693382915098        0.05000000000000048      1.168331246205961        4.073693382915097        0.05000000000000048      0.0319800222637104       3.210047063286213E-9     2.4280040034017933E-14
1.1490666646784669        4.225801427438559        0                        1.1490666646784666       4.225801427438559        0                        0.005790111938948488     3.2354367105208617E-9    4.4018940555067125E-15
1.2249166188085618        4.0901997571688575       0                        1.2249166188085618       4.0901997571688575       0                        0.025682244798092065     3.2053769059630824E-9    1.9499172983718636E-14
1.349066664678467         4.030240508127453        0                        1.3490666646784673       4.030240508127453        0                        0.040761663329943736     3.1827763756331163E-9    3.0946982986394255E-14
1.1038575065095806        4.0670266473559185       0.09999999999999999      1.1038575065095806       4.067026647355918        0.10000000000000002      0.0338431764383154       3.217183365080931E-9     2.569451257981376E-14
1.1023287309003444        4.06634791564477         0                        1.1023287309003444       4.06634791564477         0                        0.04551753757597587      3.2141852558623897E-9    3.4557356181744247E-14
0.9490666646784671        4.225801427438559        0                        0.9490666646784671       4.225801427438559        0                        0.010251044770002923     3.256215125761419E-9     7.785917748084506E-15
0.9490666646784671        4.225801427438559        0.09999999999999999      0.9490666646784671       4.225801427438559        0.09999999999999999      0.008299067317082272     3.2592613805944555E-9    6.304553247814399E-15
1.1957468721445326        3.9136464348240807       0.09999999999999999      1.1957468721445326       3.9136464348240803       0.10000000000000002      0.18658176257160422      3.182566693905567E-9     1.4165182585644203E-13
0.9490666646784671        4.030240508127452        0.09999999999999999      0.9490666646784671       4.030240508127452        0.09999999999999999      0.03508195234113642      3.227450547059624E-9     2.6635563490181128E-14
1.349066664678467         3.83447138270341         0                        1.3490666646784673       3.8344713827034096       0                        0.40768860666961687      3.1506369949134866E-9    3.095145707083778E-13
1.349066664678467         3.834471382703422        0.09999999999999999      1.349066664678467        3.834471382703422        0.09999999999999999      0.43610917099208196      3.153678124698461E-9     3.3109126750926915E-13
1.1970265226831314        3.9116126726473297       0                        1.1970265226831314       3.9116126726473297       0                        0.25652126835478606      3.1790536643937955E-9    1.9474941267781457E-13
1.0616747467971757        3.9214605652890775       0                        1.0616747467971754       3.9214605652890793       0                        0.15949606622166873      3.1948423782392753E-9    1.2108856955476096E-13
1.0626357920015024        3.9232772650072456       0.09999999999999999      1.0626357920015024       3.9232772650072456       0.09999999999999999      0.14496730795226345      3.198082457432861E-9     1.1005844349703174E-13
0.9490666646784671        4.030243028303578        0                        0.9490666646784671       4.030243028303578        0                        0.045166905423263015     3.2244049073611548E-9    3.42912679509122E-14